0.0,0.0
0.9950041652780258,0.09983341664682815
1.9900083305560516,0.1996668332936563
2.9850124958340776,0.29950024994048446
