0.0,0.0
-0.4111607865335026,-0.9115628379970037
-1.0058027235153078,-0.10757218706720162
-1.9999999999999996,4.996003610813204e-16
